<?xml version="1.0"?>
<VTKFile type="UnstructuredGrid"  version="0.1"  >
<UnstructuredGrid>
<Piece  NumberOfPoints="7183" NumberOfCells="35429">
<Points>
<DataArray  type="Float64"  NumberOfComponents="3"  format="ascii">-100 -100 -100  100 -100 -100  -100 100 -100  -100 -100 100  100 100 -100  -100 100 100  100 -100 100  100 100 100  20 -20 -20  20 20 -20  20 -20 20  20 20 20  -20 -20 -20  -20 20 -20  -20 -20 20  -20 20 20  -100 90.00000000001693 100  -100 80.00000000003386 100  -100 70.00000000008632 100  -100 60.00000000016264 100  -100 50.0000000002151 100  -100 40.00000000026757 100  -100 30.00000000029615 100  -100 20.00000000031308 100  -100 10.00000000033 100  -100 3.469438070169417e-10 100  -100 -9.999999999636117 100  -100 -19.99999999961921 100  -100 -29.99999999962114 100  -100 -39.99999999967528 100  -100 -49.9999999997294 100  -100 -59.99999999978351 100  -100 -69.99999999983763 100  -100 -79.99999999989177 100  -100 -89.99999999994591 100  -90.00000000001693 -100 100  -80.00000000003386 -100 100  -70.00000000008632 -100 100  -60.00000000016264 -100 100  -50.0000000002151 -100 100  -40.00000000026757 -100 100  -30.00000000029615 -100 100  -20.00000000031308 -100 100  -10.00000000033 -100 100  -3.469438070169417e-10 -100 100  9.999999999636117 -100 100  19.99999999961921 -100 100  29.99999999962114 -100 100  39.99999999967528 -100 100  49.9999999997294 -100 100  59.99999999978351 -100 100  69.99999999983763 -100 100  79.99999999989177 -100 100  89.99999999994591 -100 100  100 -90.00000000001693 100  100 -80.00000000003386 100  100 -70.00000000008632 100  100 -60.00000000016264 100  100 -50.0000000002151 100  100 -40.00000000026757 100  100 -30.00000000029615 100  100 -20.00000000031308 100  100 -10.00000000033 100  100 -3.469438070169417e-10 100  100 9.999999999636117 100  100 19.99999999961921 100  100 29.99999999962114 100  100 39.99999999967528 100  100 49.9999999997294 100  100 59.99999999978351 100  100 69.99999999983763 100  100 79.99999999989177 100  100 89.99999999994591 100  90.00000000001693 100 100  80.00000000003386 100 100  70.00000000008632 100 100  60.00000000016264 100 100  50.0000000002151 100 100  40.00000000026757 100 100  30.00000000029615 100 100  20.00000000031308 100 100  10.00000000033 100 100  3.469438070169417e-10 100 100  -9.999999999636117 100 100  -19.99999999961921 100 100  -29.99999999962114 100 100  -39.99999999967528 100 100  -49.9999999997294 100 100  -59.99999999978351 100 100  -69.99999999983763 100 100  -79.99999999989177 100 100  -89.99999999994591 100 100  -100 100 90.00000000001693  -100 100 80.00000000003386  -100 100 70.00000000008632  -100 100 60.00000000016264  -100 100 50.0000000002151  -100 100 40.00000000026757  -100 100 30.00000000029615  -100 100 20.00000000031308  -100 100 10.00000000033  -100 100 3.469438070169417e-10  -100 100 -9.999999999636117  -100 100 -19.99999999961921  -100 100 -29.99999999962114  -100 100 -39.99999999967528  -100 100 -49.9999999997294  -100 100 -59.99999999978351  -100 100 -69.99999999983763  -100 100 -79.99999999989177  -100 100 -89.99999999994591  -100 90.00000000001693 -100  -100 80.00000000003386 -100  -100 70.00000000008632 -100  -100 60.00000000016264 -100  -100 50.0000000002151 -100  -100 40.00000000026757 -100  -100 30.00000000029615 -100  -100 20.00000000031308 -100  -100 10.00000000033 -100  -100 3.469438070169417e-10 -100  -100 -9.999999999636117 -100  -100 -19.99999999961921 -100  -100 -29.99999999962114 -100  -100 -39.99999999967528 -100  -100 -49.9999999997294 -100  -100 -59.99999999978351 -100  -100 -69.99999999983763 -100  -100 -79.99999999989177 -100  -100 -89.99999999994591 -100  -100 -100 -90.00000000001693  -100 -100 -80.00000000003386  -100 -100 -70.00000000008632  -100 -100 -60.00000000016264  -100 -100 -50.0000000002151  -100 -100 -40.00000000026757  -100 -100 -30.00000000029615  -100 -100 -20.00000000031308  -100 -100 -10.00000000033  -100 -100 -3.469438070169417e-10  -100 -100 9.999999999636117  -100 -100 19.99999999961921  -100 -100 29.99999999962114  -100 -100 39.99999999967528  -100 -100 49.9999999997294  -100 -100 59.99999999978351  -100 -100 69.99999999983763  -100 -100 79.99999999989177  -100 -100 89.99999999994591  -90.00000000001693 -100 -100  -80.00000000003386 -100 -100  -70.00000000008632 -100 -100  -60.00000000016264 -100 -100  -50.0000000002151 -100 -100  -40.00000000026757 -100 -100  -30.00000000029615 -100 -100  -20.00000000031308 -100 -100  -10.00000000033 -100 -100  -3.469438070169417e-10 -100 -100  9.999999999636117 -100 -100  19.99999999961921 -100 -100  29.99999999962114 -100 -100  39.99999999967528 -100 -100  49.9999999997294 -100 -100  59.99999999978351 -100 -100  69.99999999983763 -100 -100  79.99999999989177 -100 -100  89.99999999994591 -100 -100  100 -90.00000000001693 -100  100 -80.00000000003386 -100  100 -70.00000000008632 -100  100 -60.00000000016264 -100  100 -50.0000000002151 -100  100 -40.00000000026757 -100  100 -30.00000000029615 -100  100 -20.00000000031308 -100  100 -10.00000000033 -100  100 -3.469438070169417e-10 -100  100 9.999999999636117 -100  100 19.99999999961921 -100  100 29.99999999962114 -100  100 39.99999999967528 -100  100 49.9999999997294 -100  100 59.99999999978351 -100  100 69.99999999983763 -100  100 79.99999999989177 -100  100 89.99999999994591 -100  90.00000000001693 100 -100  80.00000000003386 100 -100  70.00000000008632 100 -100  60.00000000016264 100 -100  50.0000000002151 100 -100  40.00000000026757 100 -100  30.00000000029615 100 -100  20.00000000031308 100 -100  10.00000000033 100 -100  3.469438070169417e-10 100 -100  -9.999999999636117 100 -100  -19.99999999961921 100 -100  -29.99999999962114 100 -100  -39.99999999967528 100 -100  -49.9999999997294 100 -100  -59.99999999978351 100 -100  -69.99999999983763 100 -100  -79.99999999989177 100 -100  -89.99999999994591 100 -100  100 100 -90.00000000001693  100 100 -80.00000000003386  100 100 -70.00000000008632  100 100 -60.00000000016264  100 100 -50.0000000002151  100 100 -40.00000000026757  100 100 -30.00000000029615  100 100 -20.00000000031308  100 100 -10.00000000033  100 100 -3.469438070169417e-10  100 100 9.999999999636117  100 100 19.99999999961921  100 100 29.99999999962114  100 100 39.99999999967528  100 100 49.9999999997294  100 100 59.99999999978351  100 100 69.99999999983763  100 100 79.99999999989177  100 100 89.99999999994591  100 -100 -90.00000000001693  100 -100 -80.00000000003386  100 -100 -70.00000000008632  100 -100 -60.00000000016264  100 -100 -50.0000000002151  100 -100 -40.00000000026757  100 -100 -30.00000000029615  100 -100 -20.00000000031308  100 -100 -10.00000000033  100 -100 -3.469438070169417e-10  100 -100 9.999999999636117  100 -100 19.99999999961921  100 -100 29.99999999962114  100 -100 39.99999999967528  100 -100 49.9999999997294  100 -100 59.99999999978351  100 -100 69.99999999983763  100 -100 79.99999999989177  100 -100 89.99999999994591  -10.00000000000989 20 -20  -2.463451664880267e-11 20 -20  9.999999999987679 20 -20  20 10.00000000000989 -20  20 2.463451664880267e-11 -20  20 -9.999999999987679 -20  10.00000000000989 -20 -20  2.463451664880267e-11 -20 -20  -9.999999999987679 -20 -20  -20 -10.00000000000989 -20  -20 -2.463451664880267e-11 -20  -20 9.999999999987679 -20  20 20 -10.00000000000989  20 20 -2.463451664880267e-11  20 20 9.999999999987679  10.00000000000989 20 20  2.463451664880267e-11 20 20  -9.999999999987679 20 20  -20 20 10.00000000000989  -20 20 2.463451664880267e-11  -20 20 -9.999999999987679  -20 -20 -10.00000000000989  -20 -20 -2.463451664880267e-11  -20 -20 9.999999999987679  -10.00000000000989 -20 20  -2.463451664880267e-11 -20 20  9.999999999987679 -20 20  20 -20 10.00000000000989  20 -20 2.463451664880267e-11  20 -20 -9.999999999987679  20 10.00000000000989 20  20 2.463451664880267e-11 20  20 -9.999999999987679 20  -20 10.00000000000989 20  -20 2.463451664880267e-11 20  -20 -9.999999999987679 20  0.3948852489562639 -0.2112322019252286 100  -41.42857142856468 41.42857142857877 100  -42.73181917563085 -42.64711308219054 100  40.71776852382985 -40.50410176391668 100  41.07818378664152 42.41475425266515 100  0.1528962413367614 55.40588409047136 100  -56.0627177700347 9.547231313157603e-12 100  -9.541234308563913e-12 -56.06271777003472 100  55.39420221504484 0.04583208098692482 100  -66.39956122667235 66.19736798626042 100  -66.19736798626042 -66.39956122667233 100  66.39956122667233 -66.19736798626042 100  66.19736798626042 66.39956122667235 100  -13.11301854564189 26.89298829088729 100  -13.39721254355914 -28.03135888501507 100  28.03135888501507 -13.39721254355914 100  -69.19933614340249 28.26039319188163 100  -27.45147717529153 -69.26188160730334 100  69.26188160730334 -27.45147717529153 100  27.93850303567953 69.19705982578272 100  -69.00268173152251 -27.19530422630892 100  27.93850303564538 -69.19705982576224 100  69.00651894200517 27.2184165590923 100  -28.09373243830973 69.20570572282486 100  15.80965041580721 26.75839687357447 100  -28.0313588850167 3.819976049361072 100  11.7397499049915 -33.23467294534041 100  38.97757570912061 17.05350835889411 100  -40.6132219128467 -18.29956630741615 100  -76.03958607285064 7.588872027392645 100  6.892491991141519 76.38120461979936 100  -6.935907909770976 -77.59075177155714 100  76.72863503063388 -6.429903324176999 100  -44.40042768261765 19.1793899152972 100  20.02970948723321 46.80764189935908 100  -79.17200186309569 48.57076100246137 100  -48.57076100246135 -79.17200186309569 100  79.17200186309569 -48.57076100246135 100  48.57076100246135 79.17200186309569 100  -47.37649280365724 77.90449191735445 100  -77.90449191735443 -47.37649280365721 100  47.37649280365722 -77.90449191735443 100  77.90449191735443 47.37649280365722 100  -19.89402543877419 -48.78433928996941 100  47.91073326796186 -20.27441923502879 100  -20.47157308348941 48.618839153358 100  19.8269245340604 5.631372751268849 100  20.98406002097036 -48.83478812640068 100  -80.38463086341721 -80.16551705380073 100  80.16551705380073 -80.
[...]
<PointData  Scalars="f_17"> 
<DataArray  type="Float64"  Name="f_17"  format="ascii">0.0000000000000000e+00  1.0000000000000000e+00  0.0000000000000000e+00  0.0000000000000000e+00  1.0000000000000000e+00  0.0000000000000000e+00  1.0000000000000000e+00  1.0000000000000000e+00  0.0000000000000000e+00  0.0000000000000000e+00  0.0000000000000000e+00  0.0000000000000000e+00  0.0000000000000000e+00  0.0000000000000000e+00  0.0000000000000000e+00  0.0000000000000000e+00  0.0000000000000000e+00  0.0000000000000000e+00  0.0000000000000000e+00  0.0000000000000000e+00  0.0000000000000000e+00  0.0000000000000000e+00  0.0000000000000000e+00  0.0000000000000000e+00  0.0000000000000000e+00  0.0000000000000000e+00  0.0000000000000000e+00  0.0000000000000000e+00  0.0000000000000000e+00  0.0000000000000000e+00  0.0000000000000000e+00  0.0000000000000000e+00  0.0000000000000000e+00  0.0000000000000000e+00  0.0000000000000000e+00  3.1850187535314982e-02  6.4084691679380371e-02  9.6927842765020922e-02  1.3110700153525140e-01  1.6634909824639516e-01  2.0361708752240207e-01  2.4291793708541604e-01  2.8488104280637239e-01  3.2924068382933186e-01  3.7701456117397925e-01  4.2804463161243900e-01  4.8246404557133293e-01  5.3915955815963723e-01  5.9922261008623590e-01  6.6201601077599870e-01  7.2693082152395694e-01  7.9341005277746446e-01  8.6159708398737012e-01  9.3050727235297070e-01  1.0000000000000000e+00  1.0000000000000000e+00  1.0000000000000000e+00  1.0000000000000000e+00  1.0000000000000000e+00  1.0000000000000000e+00  1.0000000000000000e+00  1.0000000000000000e+00  1.0000000000000000e+00  1.0000000000000000e+00  1.0000000000000000e+00  1.0000000000000000e+00  1.0000000000000000e+00  1.0000000000000000e+00  1.0000000000000000e+00  1.0000000000000000e+00  1.0000000000000000e+00  1.0000000000000000e+00  1.0000000000000000e+00  9.3051008550430814e-01  8.6155145509813724e-01  7.9349126903432465e-01  7.2664233027401282e-01  6.6170179441781729e-01  5.9902649760780269e-01  5.3893794473658296e-01  4.8170479673138161e-01  4.2761836765994360e-01  3.7691887261242935e-01  3.2917874496082716e-01  2.8432348588307399e-01  2.4259603783661318e-01  2.0325418723900840e-01  1.6609690823899956e-01  1.3081480605119553e-01  9.6748431694840875e-02  6.4027839136477138e-02  3.1815102427224101e-02  0.0000000000000000e+00  0.0000000000000000e+00  0.0000000000000000e+00  0.0000000000000000e+00  0.0000000000000000e+00  0.0000000000000000e+00  0.0000000000000000e+00  0.0000000000000000e+00  0.0000000000000000e+00  0.0000000000000000e+00  0.0000000000000000e+00  0.0000000000000000e+00  0.0000000000000000e+00  0.0000000000000000e+00  0.0000000000000000e+00  0.0000000000000000e+00  0.0000000000000000e+00  0.0000000000000000e+00  0.0000000000000000e+00  0.0000000000000000e+00  0.0000000000000000e+00  0.0000000000000000e+00  0.0000000000000000e+00  0.0000000000000000e+00  0.0000000000000000e+00  0.0000000000000000e+00  0.0000000000000000e+00  0.0000000000000000e+00  0.0000000000000000e+00  0.0000000000000000e+00  0.0000000000000000e+00  0.0000000000000000e+00  0.0000000000000000e+00  0.0000000000000000e+00  0.0000000000000000e+00  0.0000000000000000e+00  0.0000000000000000e+00  0.0000000000000000e+00  0.0000000000000000e+00  0.0000000000000000e+00  0.0000000000000000e+00  0.0000000000000000e+00  0.0000000000000000e+00  0.0000000000000000e+00  0.0000000000000000e+00  0.0000000000000000e+00  0.0000000000000000e+00  0.0000000000000000e+00  0.0000000000000000e+00  0.0000000000000000e+00  0.0000000000000000e+00  0.0000000000000000e+00  0.0000000000000000e+00  0.0000000000000000e+00  0.0000000000000000e+00  0.0000000000000000e+00  0.0000000000000000e+00  3.1871369457223110e-02  6.4137668706660142e-02  9.6928375291780444e-02  1.3116281013144646e-01  1.6650977249882432e-01  2.0367628885868713e-01  2.4298778549484873e-01  2.8487718988003241e-01  3.2968951547779785e-01  3.7744787551409514e-01  4.2810173234026244e-01  4.8247121873328391e-01  5.3934354568023868e-01  5.9941210025885061e-01  6.6214791558618868e-01  7.2720995986897086e-01  7.9344057205940988e-01  8.6168877665834342e-01  9.3053821733705755e-01  1.0000000000000000e+00  1.0000000000000000e+00  1.0000000000000000e+00  1.0000000000000000e+00  1.0000000000000000e+00  1.0000000000000000e+00  1.0000000000000000e+00  1.0000000000000000e+00  1.0000000000000000e+00  1.0000000000000000e+00  1.0000000000000000e+00  1.0000000000000000e+00  1.0000000000000000e+00  1.0000000000000000e+00  1.0000000000000000e+00  1.0000000000000000e+00  1.0000000000000000e+00  1.0000000000000000e+00  1.0000000000000000e+00  9.3050486888902051e-01  8.6161218627878333e-01  7.9337737435756128e-01  7.2694121909556253e-01  6.6194835387565487e-01  5.9927994655690209e-01  5.3929750302412149e-01  4.8207266940490068e-01  4.2793568321733355e-01  3.7678380086428853e-01  3.2905974605156008e-01  2.8461078864443262e-01  2.4269914609641888e-01  2.0323951730130613e-01  1.6611140553072071e-01  1.3089090571992307e-01  9.6817433236765019e-02  6.4086463884273123e-02  3.1820886182489093e-02  1.0000000000000000e+00  1.0000000000000000e+00  1.0000000000000000e+00  1.0000000000000000e+00  1.0000000000000000e+00  1.0000000000000000e+00  1.0000000000000000e+00  1.0000000000000000e+00  1.0000000000000000e+00  1.0000000000000000e+00  1.0000000000000000e+00  1.0000000000000000e+00  1.0000000000000000e+00  1.0000000000000000e+00  1.0000000000000000e+00  1.0000000000000000e+00  1.0000000000000000e+00  1.0000000000000000e+00  1.0000000000000000e+00  1.0000000000000000e+00  1.0000000000000000e+00  1.0000000000000000e+00  1.0000000000000000e+00  1.0000000000000000e+00  1.0000000000000000e+00  1.0000000000000000e+00  1.0000000000000000e+00  1.0000000000000000e+00  1.0000000000000000e+00  1.0000000000000000e+00  1.0000000000000000e+00  1.0000000000000000e+00  1.0000000000000000e+00  1.0000000000000000e+00  1.0000000000000000e+00  1.0000000000000000e+00  1.0000000000000000e+00  1.0000000000000000e+00  0.0000000000000000e+00  0.0000000000000000e+00  0.0000000000000000e+00  0.0000000000000000e+00  0.0000000000000000e+00  0.0000000000000000e+00  0.0000000000000000e+00  0.0000000000000000e+00  0.0000000000000000e+00  0.0000000000000000e+00  0.0000000000000000e+00  0.0000000000000000e+00  0.0000000000000000e+00  0.0000000000000000e+00  0.0000000000000000e+00  0.0000000000000000e+00  0.0000000000000000e+00  0.0000000000000000e+00  0.0000000000000000e+00  0.0000000000000000e+00  0.0000000000000000e+00  0.0000000000000000e+00  0.0000000000000000e+00  0.0000000000000000e+00  0.0000000000000000e+00  0.0000000000000000e+00  0.0000000000000000e+00  0.0000000000000000e+00  0.0000000000000000e+00  0.0000000000000000e+00  0.0000000000000000e+00  0.0000000000000000e+00  0.0000000000000000e+00  0.0000000000000000e+00  0.0000000000000000e+00  0.0000000000000000e+00  3.4282715160065835e-01  1.8358234008219484e-01  1.7977546714961370e-01  5.8588435717243492e-01  5.8865448489479644e-01  3.6364262808004666e-01  1.2780180609739283e-01  3.6366475053981195e-01  6.7501086397063770e-01  1.0578813405013905e-01  1.0664999566991817e-01  7.6548205917933498e-01  7.6403959068895966e-01  2.8763296142041206e-01  2.8718745058046502e-01  4.9627473879283096e-01  9.0492532316321234e-02  2.4774053024177439e-01  7.7640573692685966e-01  5.2041055366463906e-01  9.0974566327701595e-02  5.2080652144649686e-01  7.7408109589276275e-01  2.4480092326651756e-01  4.2988830747403783e-01  2.2276101448391802e-01  4.1087170624805380e-01  5.6598512311444227e-01  1.7989280012385864e-01  6.8247913216775674e-02  4.0756362409293723e-01  3.4006721508246501e-01  8.2796434019014309e-01  1.6717953292442150e-01  4.6378680901069380e-01  6.2848915680909223e-02  1.6973049902450732e-01  8.5062623508217206e-01  6.5056946000062554e-01  1.7339354194288201e-01  6.6763640318664566e-02  6.4234005470107602e-01  8.4160413730800365e-01  2.6965556775806210e-01  6.2577781885936656e-01  2.6716693592930374e-01  4.4620882955199309e-01  4.7051822360535894e-01  6.2169493548099870e-02  8.6194003432710620e-01  8.6326605351377206e-01  6.2712917241445718e-02  5.5405201685965126e-02  4.4002089318444387e-01  8.5608087271724631e-01  3.1344400889509405e-01  1.2334322263615694e-01  6.4013199921618447e-01  1.6674276924524270e-01  7.1137169385266819e-01  1.2562265039137280e-01  1.8559090198712083e-01  6.0595756966476166e-01  7.0782326928236072e-01  3.5847226259418863e-01  2.7615495481288027e-01  3.5046980097266905e-01  3.4566730362486797e-01  5.6281538980509560e-01  5.0525780018715372e-01  6.8243948616535666e-01  2.1950738091669014e-01  1.2906064259971659e-01  5.0393141923496337e-02  1.1765579883389307e-01  8.8462879472969913e-01  7.4992786629178276e-01  1.1554471271566874e-01  5.1355338444349592e-02  7.5383162816453197e-01  8.8288231990523347e-01  2.2443318582060331e-01  3.4026655681109946e-01  4.4743874537921356e-02  2.7490518561628419e-01  8.7994778015613562e-01  4.8854606216222840e-01  5.4679758005759027e-01  8.9391437920060091e-01  2.3505254811402057e-01  4.2587635940114985e-02  2.8288298542000662e-01  1.1756360287408704e-01  1.3872611582545316e-01  4.3925047856649968e-01  3.0394519916632934e-01  4.4003282029587953e-01  3.0448455030855281e-01  7.3385239408053993e-01  5.4780924048477408e-01  5.1932741602632326e-01  4.0998488337111011e-01  1.4710912654722669e-01  6.5025824331458892e-01  1.7555536972365693e-01  2.1780241143018073e-01  6.8169286307954602e-01  5.7059140696289967e-01  4.1201808853865686e-02  2.1974724718566022e-01  8.9961119354691754e-01  7.6804410444760296e-01  9.0370497296180172e-02  4.1237986921424158e-01  2.3583834627907388e-01  2.0863613098609185e-01  2.1793208846933917e-01  4.3530197138614191e-01  4.9286037614536010e-01  3.0974873728841212e-01  3.8887154580235389e-01  8.9929287779228051e-01  3.6263553845075280e-01  3.8403207309809673e-02  2.5110587979609666e-01  3.7184016126644587e-01  3.7075062639741418e-01  5.9115993085447160e-01  9.3961681513728065e-02  1.9778986125387393e-01  7.7532175900798495e-01  1.4625990752960941e-01  9.8089146064745128e-02  6.8568157784575112e-01  7.7466375251795971e-01  5.5942298136650748e-01  5.8611423397250650e-01  6.2372095301191344e-01  5.7734484429634869e-01  2.3408327079363606e-01  4.8660024801833984e-01  9.1208026024807520e-01  2.7927424664447481e-01  3.4204848807544715e-02  3.7915944486197867e-01  1.8486230792169020e-01  3.7111342809343327e-02  9.1871780715326290e-01  9.1866481452055559e-01  3.7041361447042752e-02  4.2046418353267268e-01  4.0064095124384491e-01  3.3341845926465219e-02  6.8476790205188787e-01  1.5280812372290006e-01  9.2070019742330911e-01  3.4251260246096468e-02  6.8131946001606436e-01  9.1911351310409484e-01  1.5460516227756010e-01  1.4577059293604863e-01  7.8105863832144584e-01  6.8780491354410978e-01  9.2674386174747381e-02  1.8309144767945926e-01  4.3206632344192064e-01  3.2594721843744190e-01  9.2301720242654339e-01  3.2509975820547092e-02  8.5699061838240567e-02  9.3700883244740171e-02  2.2495776962650677e-01  8.6726686124773369e-02  5.8648049468122398e-01  7.9073926231892733e-01  2.0353664041634584e-01  3.3710718930310180e-01  4.5971034991686133e-01  5.2122662074952419e-01  2.9130190237384024e-01  3.1779122125127174e-01  8.9018998015408191e-02  9.1713527847995002e-01  3.6872955838750707e-02  8.0878459627755572e-01  3.4256339965484786e-02  8.1473439553021332e-01  9.2292694136876496e-01  8.6082902753494381e-02  1.8093818876810305e-01  1.4460143670204512e-01  7.6289293638257960e-01  4.9886162246840704e-01  5.8103185898984755e-01  3.1063861842946638e-01  2.6631087450985719e-01  4.6702318798375825e-01  6.4545462483210247e-01  2.8988169924439960e-01  8.1260245585777346e-01  6.4486826490209992e-01  1.5796156838937164e-01  6.4010555867338592e-01  1.6321274446021630e-01  3.3864471328973111e-01  2.5801631181813695e-01  7.0242702318036265e-01  3.1970390919006625e-01  6.1327693075246092e-01  9.2240207288556697e-01  1.9373573286886822e-01  3.1945758078103847e-02  7.7347377857574159e-02  7.9375042155495357e-01  8.2802091605688677e-01  9.4229490451120307e-02  4.8589673475492168e-01  2.7087257278216625e-01  8.0355820714032342e-02  7.9604319451446326e-01  1.5331005853303920e-01  1.2981592223933935e-01  7.2033590765626210e-01  7.1222935393936315e-01  1.2442935706257956e-01  5.2861469958116736e-01  2.6145216502776186e-01  5.1910252464589757e-01  5.0301192781606519e-01  2.6280425881874747e-01  2.0398890722084534e-01  3.0096491305821244e-01  8.1727761128960341e-01  5.4269884153976733e-01  7.0373267592886382e-02  4.3024002286277852e-01  3.0679301156305477e-01  4.9481292812279409e-01  6.1650720490739767e-02  5.5609270879703343e-01  8.4401025538619789e-01  3.3874004805796659e-01  1.1685488294407122e-01  7.2039018653281905e-01  3.8661791632057052e-01  2.1790074551304073e-01  1.5338010213005798e-01  5.5428038361811172e-01  2.2464237057229874e-01  8.2651247221617696e-01  6.7987473772637586e-02  2.5050253818820947e-02  4.3802989048578128e-01  9.3503654490140808e-01  3.1973903589714581e-01  7.8224219476513882e-02  7.3887526294502703e-01  8.2268275804638469e-01  1.2121172088204525e-01  3.5825604541180273e-01  3.8503633875424670e-01  4.3234705604571189e-01  3.2576088470706716e-01  1.4698572148333303e-01  3.0401391914617205e-02  6.1927215352504827e-01  1.9038060639403365e-01  9.2671752670278595e-01  1.1700591841505330e-01  7.3845569579905601e-01  7.7837953638700594e-02  1.2152590234763017e-01  8.2169257134300977e-01  4.1175547695743375e-01  3.9135712056631089e-01  6.2558993327849011e-01  3.6559151758549624e-01  5.2383687941334178e-01  2.5835331515284932e-02  2.5267846502222585e-01  9.3498902999054767e-01  2.9882055972125554e-01  6.9797998896712887e-01  1.2152018804871702e-01  3.9586607633411441e-01  4.7407561577736840e-01  2.6001054389694295e-01  6.9603296919621416e-02  9.4810251209472174e-02  8.4271456318658011e-01  7.9401265555809775e-01  6.4769122462959050e-01  1.8755735474426866e-01  1.1729592113878914e-01  9.4445538609795832e-01  2.4160376035992616e-02  7.5242545971024610e-01  2.3956644436513928e-02  7.5380195234267988e-01  9.4494605167361456e-01  1.1666292536219292e-01  2.5032454727884124e-01  5.9265966481047694e-01  2.0844926430057875e-01  1.1201372236812086e-01  3.8879260871367743e-01  6.1979739253457455e-01  6.9871324123496126e-01  1.1785312335247315e-01  1.4918521572800283e-01  4.7963527345777840e-01  4.5200797142059734e-01  6.4963491917287408e-01  1.3974457961457953e-01  3.8740696521437146e-01  3.6609340923314937e-01  2.2567437430581364e-01  1.8846662552193548e-02  5.6382089173180883e-01  9.5314567282829488e-01  2.9288926271589472e-01  5.5053425662912003e-01  6.8011603844962978e-02  5.5031188076236759e-01  8.3151502177616687e-01  2.2913770517649770e-01  6.3288308838492624e-02  1.4154370832421390e-01  8.5151093508546616e-01  7.0222645384302584e-01  3.3205639000507697e-01  4.8013769901801795e-01  2.4729261637716340e-01  4.7202038076835906e-01  2.1343462738426598e-02  2.9056095279273730e-01  9.3934855272799700e-01  3.2652884022488637e-01  4.1794324037509728e-01  2.8611008923335574e-01  4.7039207545256756e-01  3.9588256148019862e-01  6.3475049883438750e-01  4.4831007364523234e-01  2.1590488471404934e-01  4.0525039562015303e-01  5.2729527496102946e-01  6.1121478586087609e-02  6.9777879901274809e-01  8.5824478268669624e-01  1.4381319260717243e-01  6.6321541937921918e-02  5.6663481570450952e-02  2.0361221833521709e-01  5.0639719801308170e-01  2.5507282654354141e-01  8.3461910860430755e-01  1.9917068858834663e-01  1.8919168565342087e-01  3.6186023170839532e-01  9.4389806270823517e-01  2.1156061456142364e-02  3.9185220570103252e-01  5.6755564065097341e-01  2.2132475312937649e-01  7.4025073520345686e-01  5.8751837713444066e-01  8.5561442293410450e-01  2.0681098794741243e-01  5.8953526793409677e-02  6.0390205626842650e-02  9.4405717859791538e-01  2.5232300256273685e-02  8.6898587810763317e-01  6.0351288734173197e-02  2.5262250063252376e-02  8.6907490586471126e-01  9.4395725251483265e-01  4.4834717983301670e-01  6.7990694580941258e-01  3.1055553894077031e-01  8.6011159794782666e-01  5.5223238298815203e-01  4.4601541726675181e-01  3.2998363043344997e-01  2.0452690554070502e-01  1.5363320598511013e-01  3.1312390059692857e-01  7.3555488072212516e-01  3.4261332580992032e-01  4.0084239865916427e-01  5.1328022155135511e-01  1.0477667121015642e-01  4.4004756988156374e-01  1.2085165886691178e-01  2.3671622784377688e-01  7.0327384156801531e-01  5.6283204011356891e-01  5.8590382244686867e-01  2.5664689452328188e-01  1.8981092186555742e-01  1.6248475696912190e-01  5.3239351104351951e-01  1.9432466256113817e-02  5.7013481004094513e-01  2.2166867049802177e-01  9.5219160822493154e-01  7.9021060373137531e-01  2.7481729404503585e-01  7.5594832066822615e-01  1.6675745890500950e-02  4.0196281093645336e-01  9.5629523329519572e-01  3.5253368773901123e-01  4.9819399574573681e-02  5.1662907481240483e-01  1.9780012753546428e-01  7.1104423573196229e-01  1.0439077049183745e-01  3.1387951254117508e-01  2.6767175963078632e-01  1.5616427518588122e-01  1.5345121660846936e-01  6.6394362996974554e-01  1.3153151145663441e-01  7.0161188022473209e-01  1.7831652086366645e-01  6.2726439632490449e-01  7.6185784554807612e-01  1.0109498836760471e-01  4.2744068849274752e-01  1.7218856678488775e-01  7.9133134787156167e-01  6.4039300238157215e-01  8.8485595833166661e-02  5.9400147702993046e-02  6.0208318113724058e-01  1.9768094750816051e-01  8.5392854968358667e-01  2.4306649393985100e-01  3.8512409965821925e-01  5.2303809987915684e-01  9.5124659757597796e-01  2.5356302347522064e-01  1.9341309702775460e-02  2.0623771061230634e-02  9.5498045863562953e-01  9.5496507419788634e-01  2.0591524227022845e-02  4.7843642371534106e-01  3.9614740006467081e-01  1.2228855675576994e-01  6.1604272198173093e-01  2.3953888379155816e-01  3.7255416944225517e-01  2.9736574687481487e-01  6.0671454468742814e-01  2.4530980807805097e-01  8.7514076563574772e-01  5.2846801368967944e-01  5.5208154048259739e-01  8.8543758531473199e-02  5.6283934908397115e-02  8.0806310776889057e-01  8.7421119249649681e-01  7.2630357814315272e-01  1.7128776703048726e-01  5.9399985655313925e-01  2.0770787032313323e-01  3.5119484886389246e-01  8.8465873169044862e-01  4.6008983699310974e-02  4.0009816605570769e-01  2.0956998946939173e-01  0.0000000000000000e+00  0.0000000000000000e+00  0.0000000000000000e+00  0.0000000000000000e+00  0.0000000000000000e+00  0.0000000000000000e+00  0.0000000000000000e+00  0.0000000000000000e+00  0.0000000000000000e+00  0.0000000000000000e+00  0.0000000000000000e+00  0.0000000000000000e+00  0.0000000000000000e+00  0.0000000000000000e+00  0.0000000000000000e+00  0.0000000000000000e+00  0.0000000000000000e+00  0.0000000000000000e+00  0.0000000000000000e+00  0.0000000000000000e+00  0.0000000000000000e+00  0.0000000000000000e+00  0.0000000000000000e+00  0.0000000000000000e+00  0.0000000000000000e+00  0.0000000000000000e+00  0.0000000000000000e+00  0.0000000000000000e+00  0.0000000000000000e+00  0.0000000000000000e+00  0.0000000000000000e+00  0.0000000000000000e+00  0.0000000000000000e+00  0.0000000000000000e+00  0.0000000000000000e+00  0.0000000000000000e+00  0.0000000000000000e+00  0.0000000000000000e+00  0.0000000000000000e+00  0.0000000000000000e+00  0.0000000000000000e+00  0.0000000000000000e+00  0.0000000000000000e+00  0.0000000000000000e+00  0.0000000000000000e+00  0.0000000000000000e+00  0.0000000000000000e+00  0.0000000000000000e+00  0.0000000000000000e+00  0.0000000000000000e+00  0.0000000000000000e+00  0.0000000000000000e+00  0.0000000000000000e+00  0.0000000000000000e+00  0.0000000000000000e+00  0.0000000000000000e+00  0.0000000000000000e+00  0.0000000000000000e+00  0.0000000000000000e+00  0.0000000000000000e+00  0.0000000000000000e+00  0.0000000000000000e+00  0.0000000000000000e+00  0.0000000000000000e+00  0.0000000000000000e+00  0.0000000000000000e+00  0.0000000000000000e+00  0.0000000000000000e+00  0.0000000000000000e+00  0.0000000000000000e+00  0.0000000000000000e+00  0.0000000000000000e+00  0.0000000000000000e+00  0.0000000000000000e+00  0.0000000000000000e+00  0.0000000000000000e